 VARIABLES = "X", "Y", "U", "V", "T"
 ZONE I= 21, J= 21, F=POINT 
   0.000E+00    0.000E+00    0.000E+00    0.000E+00    4.999E-01
   5.000E-02    0.000E+00    0.000E+00    0.000E+00    2.513E-01
   1.000E-01    0.000E+00    0.000E+00    0.000E+00    5.894E-02
   1.500E-01    0.000E+00    0.000E+00    0.000E+00   -6.838E-02
   2.000E-01    0.000E+00    0.000E+00    0.000E+00   -1.493E-01
   2.500E-01    0.000E+00    0.000E+00    0.000E+00   -2.026E-01
   3.000E-01    0.000E+00    0.000E+00    0.000E+00   -2.402E-01
   3.500E-01    0.000E+00    0.000E+00    0.000E+00   -2.685E-01
   4.000E-01    0.000E+00    0.000E+00    0.000E+00   -2.908E-01
   4.500E-01    0.000E+00    0.000E+00    0.000E+00   -3.091E-01
   5.000E-01    0.000E+00    0.000E+00    0.000E+00   -3.246E-01
   5.500E-01    0.000E+00    0.000E+00    0.000E+00   -3.383E-01
   6.000E-01    0.000E+00    0.000E+00    0.000E+00   -3.512E-01
   6.500E-01    0.000E+00    0.000E+00    0.000E+00   -3.639E-01
   7.000E-01    0.000E+00    0.000E+00    0.000E+00   -3.771E-01
   7.500E-01    0.000E+00    0.000E+00    0.000E+00   -3.915E-01
   8.000E-01    0.000E+00    0.000E+00    0.000E+00   -4.078E-01
   8.500E-01    0.000E+00    0.000E+00    0.000E+00   -4.266E-01
   9.000E-01    0.000E+00    0.000E+00    0.000E+00   -4.484E-01
   9.500E-01    0.000E+00    0.000E+00    0.000E+00   -4.732E-01
   1.000E+00    0.000E+00    0.000E+00    0.000E+00   -5.000E-01
   0.000E+00    5.000E-02    0.000E+00    0.000E+00    5.000E-01
   5.000E-02    5.000E-02   -9.186E+00    6.701E+00    2.452E-01
   1.000E-01    5.000E-02   -1.682E+01    3.574E+00    4.868E-02
   1.500E-01    5.000E-02   -2.093E+01    1.080E+00   -7.982E-02
   2.000E-01    5.000E-02   -2.317E+01    2.733E-01   -1.594E-01
   2.500E-01    5.000E-02   -2.487E+01    3.930E-01   -2.104E-01
   3.000E-01    5.000E-02   -2.664E+01    8.134E-01   -2.454E-01
   3.500E-01    5.000E-02   -2.863E+01    1.250E+00   -2.713E-01
   4.000E-01    5.000E-02   -3.083E+01    1.598E+00   -2.913E-01
   4.500E-01    5.000E-02   -3.307E+01    1.807E+00   -3.076E-01
   5.000E-01    5.000E-02   -3.516E+01    1.822E+00   -3.213E-01
   5.500E-01    5.000E-02   -3.679E+01    1.575E+00   -3.335E-01
   6.000E-01    5.000E-02   -3.762E+01    9.858E-01   -3.450E-01
   6.500E-01    5.000E-02   -3.722E+01   -4.381E-02   -3.564E-01
   7.000E-01    5.000E-02   -3.520E+01   -1.501E+00   -3.686E-01
   7.500E-01    5.000E-02   -3.130E+01   -3.200E+00   -3.826E-01
   8.000E-01    5.000E-02   -2.546E+01   -4.816E+00   -3.993E-01
   8.500E-01    5.000E-02   -1.803E+01   -5.848E+00   -4.193E-01
   9.000E-01    5.000E-02   -1.001E+01   -5.659E+00   -4.431E-01
   9.500E-01    5.000E-02   -3.169E+00   -3.714E+00   -4.705E-01
   1.000E+00    5.000E-02    0.000E+00    0.000E+00   -5.000E-01
   0.000E+00    1.000E-01    0.000E+00    0.000E+00    5.000E-01
   5.000E-02    1.000E-01   -1.001E+01    1.682E+01    2.361E-01
   1.000E-01    1.000E-01   -2.065E+01    1.174E+01    3.279E-02
   1.500E-01    1.000E-01   -2.829E+01    6.356E+00   -9.739E-02
   2.000E-01    1.000E-01   -3.367E+01    3.942E+00   -1.741E-01
   2.500E-01    1.000E-01   -3.785E+01    3.465E+00   -2.199E-01
   3.000E-01    1.000E-01   -4.145E+01    3.762E+00   -2.493E-01
   3.500E-01    1.000E-01   -4.473E+01    4.191E+00   -2.695E-01
   4.000E-01    1.000E-01   -4.770E+01    4.440E+00   -2.843E-01
   4.500E-01    1.000E-01   -5.022E+01    4.331E+00   -2.958E-01
   5.000E-01    1.000E-01   -5.209E+01    3.718E+00   -3.051E-01
   5.500E-01    1.000E-01   -5.300E+01    2.459E+00   -3.132E-01
   6.000E-01    1.000E-01   -5.264E+01    4.309E-01   -3.210E-01
   6.500E-01    1.000E-01   -5.067E+01   -2.414E+00   -3.295E-01
   7.000E-01    1.000E-01   -4.687E+01   -5.924E+00   -3.398E-01
   7.500E-01    1.000E-01   -4.107E+01   -9.746E+00   -3.536E-01
   8.000E-01    1.000E-01   -3.324E+01   -1.326E+01   -3.721E-01
   8.500E-01    1.000E-01   -2.368E+01   -1.545E+01   -3.964E-01
   9.000E-01    1.000E-01   -1.339E+01   -1.487E+01   -4.269E-01
   9.500E-01    1.000E-01   -4.391E+00   -1.001E+01   -4.624E-01
   1.000E+00    1.000E-01    0.000E+00    0.000E+00   -5.000E-01
   0.000E+00    1.500E-01    0.000E+00    0.000E+00    5.000E-01
   5.000E-02    1.500E-01   -9.028E+00    2.735E+01    2.331E-01
   1.000E-01    1.500E-01   -2.030E+01    2.185E+01    2.707E-02
   1.500E-01    1.500E-01   -2.950E+01    1.410E+01   -1.029E-01
   2.000E-01    1.500E-01   -3.652E+01    9.836E+00   -1.760E-01
   2.500E-01    1.500E-01   -4.196E+01    8.180E+00   -2.163E-01
   3.000E-01    1.500E-01   -4.629E+01    7.694E+00   -2.393E-01
   3.500E-01    1.500E-01   -4.976E+01    7.491E+00   -2.532E-01
   4.000E-01    1.500E-01   -5.245E+01    7.089E+00   -2.619E-01
   4.500E-01    1.500E-01   -5.436E+01    6.199E+00   -2.674E-01
   5.000E-01    1.500E-01   -5.537E+01    4.604E+00   -2.712E-01
   5.500E-01    1.500E-01   -5.535E+01    2.129E+00   -2.743E-01
   6.000E-01    1.500E-01   -5.415E+01   -1.348E+00   -2.779E-01
   6.500E-01    1.500E-01   -5.163E+01   -5.813E+00   -2.833E-01
   7.000E-01    1.500E-01   -4.765E+01   -1.110E+01   -2.923E-01
   7.500E-01    1.500E-01   -4.196E+01   -1.683E+01   -3.069E-01
   8.000E-01    1.500E-01   -3.439E+01   -2.220E+01   -3.291E-01
   8.500E-01    1.500E-01   -2.500E+01   -2.570E+01   -3.605E-01
   9.000E-01    1.500E-01   -1.450E+01   -2.495E+01   -4.014E-01
   9.500E-01    1.500E-01   -4.897E+00   -1.710E+01   -4.496E-01
   1.000E+00    1.500E-01    0.000E+00    0.000E+00   -5.000E-01
   0.000E+00    2.000E-01    0.000E+00    0.000E+00    5.000E-01
   5.000E-02    2.000E-01   -7.484E+00    3.711E+01    2.362E-01
   1.000E-01    2.000E-01   -1.815E+01    3.221E+01    3.126E-02
   1.500E-01    2.000E-01   -2.747E+01    2.258E+01   -9.673E-02
   2.000E-01    2.000E-01   -3.474E+01    1.640E+01   -1.658E-01
   2.500E-01    2.000E-01   -4.025E+01    1.323E+01   -2.006E-01
   3.000E-01    2.000E-01   -4.436E+01    1.156E+01   -2.176E-01
   3.500E-01    2.000E-01   -4.734E+01    1.036E+01   -2.254E-01
   4.000E-01    2.000E-01   -4.934E+01    9.039E+00   -2.280E-01
   4.500E-01    2.000E-01   -5.047E+01    7.244E+00   -2.278E-01
   5.000E-01    2.000E-01   -5.077E+01    4.713E+00   -2.262E-01
   5.500E-01    2.000E-01   -5.028E+01    1.246E+00   -2.247E-01
   6.000E-01    2.000E-01   -4.897E+01   -3.285E+00   -2.245E-01
   6.500E-01    2.000E-01   -4.682E+01   -8.920E+00   -2.275E-01
   7.000E-01    2.000E-01   -4.363E+01   -1.560E+01   -2.358E-01
   7.500E-01    2.000E-01   -3.910E+01   -2.300E+01   -2.519E-01
   8.000E-01    2.000E-01   -3.285E+01   -3.022E+01   -2.785E-01
   8.500E-01    2.000E-01   -2.467E+01   -3.533E+01   -3.180E-01
   9.000E-01    2.000E-01   -1.489E+01   -3.497E+01   -3.709E-01
   9.500E-01    2.000E-01   -5.276E+00   -2.451E+01   -4.342E-01
   1.000E+00    2.000E-01    0.000E+00    0.000E+00   -5.000E-01
   0.000E+00    2.500E-01    0.000E+00    0.000E+00    5.000E-01
   5.000E-02    2.500E-01   -5.680E+00    4.549E+01    2.438E-01
   1.000E-01    2.500E-01   -1.506E+01    4.184E+01    4.294E-02
   1.500E-01    2.500E-01   -2.367E+01    3.070E+01   -8.205E-02
   2.000E-01    2.500E-01   -3.039E+01    2.262E+01   -1.474E-01
   2.500E-01    2.500E-01   -3.529E+01    1.780E+01   -1.775E-01
   3.000E-01    2.500E-01   -3.869E+01    1.478E+01   -1.894E-01
   3.500E-01    2.500E-01   -4.086E+01    1.246E+01   -1.918E-01
   4.000E-01    2.500E-01   -4.207E+01    1.022E+01   -1.893E-01
   4.500E-01    2.500E-01   -4.250E+01    7.633E+00   -1.843E-01
   5.000E-01    2.500E-01   -4.232E+01    4.416E+00   -1.784E-01
   5.500E-01    2.500E-01   -4.166E+01    3.297E-01   -1.732E-01
   6.000E-01    2.500E-01   -4.060E+01   -4.808E+00   -1.701E-01
   6.500E-01    2.500E-01   -3.913E+01   -1.116E+01   -1.711E-01
   7.000E-01    2.500E-01   -3.707E+01   -1.882E+01   -1.786E-01
   7.500E-01    2.500E-01   -3.407E+01   -2.761E+01   -1.955E-01
   8.000E-01    2.500E-01   -2.962E+01   -3.663E+01   -2.258E-01
   8.500E-01    2.500E-01   -2.321E+01   -4.366E+01   -2.729E-01
   9.000E-01    2.500E-01   -1.475E+01   -4.435E+01   -3.381E-01
   9.500E-01    2.500E-01   -5.575E+00   -3.199E+01   -4.173E-01
   1.000E+00    2.500E-01    0.000E+00    0.000E+00   -5.000E-01
   0.000E+00    3.000E-01    0.000E+00    0.000E+00    5.000E-01
   5.000E-02    3.000E-01   -3.744E+00    5.217E+01    2.549E-01
   1.000E-01    3.000E-01   -1.148E+01    5.021E+01    6.010E-02
   1.500E-01    3.000E-01   -1.899E+01    3.791E+01   -6.164E-02
   2.000E-01    3.000E-01   -2.481E+01    2.802E+01   -1.240E-01
   2.500E-01    3.000E-01   -2.885E+01    2.153E+01   -1.507E-01
   3.000E-01    3.000E-01   -3.138E+01    1.713E+01   -1.586E-01
   3.500E-01    3.000E-01   -3.273E+01    1.374E+01   -1.572E-01
   4.000E-01    3.000E-01   -3.319E+01    1.067E+01   -1.509E-01
   4.500E-01    3.000E-01   -3.303E+01    7.493E+00   -1.425E-01
   5.000E-01    3.000E-01   -3.248E+01    3.873E+00   -1.336E-01
   5.500E-01    3.000E-01   -3.173E+01   -4.717E-01   -1.256E-01
   6.000E-01    3.000E-01   -3.093E+01   -5.814E+00   -1.201E-01
   6.500E-01    3.000E-01   -3.008E+01   -1.245E+01   -1.190E-01
   7.000E-01    3.000E-01   -2.907E+01   -2.066E+01   -1.248E-01
   7.500E-01    3.000E-01   -2.757E+01   -3.045E+01   -1.414E-01
   8.000E-01    3.000E-01   -2.502E+01   -4.108E+01   -1.738E-01
   8.500E-01    3.000E-01   -2.067E+01   -5.021E+01   -2.271E-01
   9.000E-01    3.000E-01   -1.398E+01   -5.261E+01   -3.039E-01
   9.500E-01    3.000E-01   -5.704E+00   -3.926E+01   -3.994E-01
   1.000E+00    3.000E-01    0.000E+00    0.000E+00   -5.000E-01
   0.000E+00    3.500E-01    0.000E+00    0.000E+00    5.000E-01
   5.000E-02    3.500E-01   -1.744E+00    5.697E+01    2.688E-01
   1.000E-01    3.500E-01   -7.624E+00    5.708E+01    8.137E-02
   1.500E-01    3.500E-01   -1.389E+01    4.403E+01   -3.720E-02
   2.000E-01    3.500E-01   -1.878E+01    3.249E+01   -9.758E-02
   2.500E-01    3.500E-01   -2.198E+01    2.437E+01   -1.221E-01
   3.000E-01    3.500E-01   -2.374E+01    1.866E+01   -1.277E-01
   3.500E-01    3.500E-01   -2.440E+01    1.428E+01   -1.237E-01
   4.000E-01    3.500E-01   -2.427E+01    1.052E+01   -1.152E-01
   4.500E-01    3.500E-01   -2.366E+01    6.919E+00   -1.048E-01
   5.000E-01    3.500E-01   -2.282E+01    3.120E+00   -9.393E-02
   5.500E-01    3.500E-01   -2.197E+01   -1.218E+00   -8.411E-02
   6.000E-01    3.500E-01   -2.128E+01   -6.458E+00   -7.663E-02
   6.500E-01    3.500E-01   -2.080E+01   -1.302E+01   -7.315E-02
   7.000E-01    3.500E-01   -2.051E+01   -2.134E+01   -7.649E-02
   7.500E-01    3.500E-01   -2.020E+01   -3.166E+01   -9.122E-02
   8.000E-01    3.500E-01   -1.937E+01   -4.352E+01   -1.238E-01
   8.500E-01    3.500E-01   -1.713E+01   -5.470E+01   -1.816E-01
   9.000E-01    3.500E-01   -1.252E+01   -5.932E+01   -2.689E-01
   9.500E-01    3.500E-01   -5.586E+00   -4.597E+01   -3.806E-01
   1.000E+00    3.500E-01    0.000E+00    0.000E+00   -5.000E-01
   0.000E+00    4.000E-01    0.000E+00    0.000E+00    5.000E-01
   5.000E-02    4.000E-01    2.329E-01    5.980E+01    2.847E-01
   1.000E-01    4.000E-01   -3.598E+00    6.235E+01    1.060E-01
   1.500E-01    4.000E-01   -8.592E+00    4.906E+01   -9.600E-03
   2.000E-01    4.000E-01   -1.263E+01    3.612E+01   -6.905E-02
   2.500E-01    4.000E-01   -1.519E+01    2.649E+01   -9.277E-02
   3.000E-01    4.000E-01   -1.640E+01    1.955E+01   -9.723E-02
   3.500E-01    4.000E-01   -1.660E+01    1.427E+01   -9.215E-02
   4.000E-01    4.000E-01   -1.610E+01    9.932E+00   -8.259E-02
   4.500E-01    4.000E-01   -1.521E+01    6.034E+00   -7.119E-02
   5.000E-01    4.000E-01   -1.417E+01    2.182E+00   -5.945E-02
   5.500E-01    4.000E-01   -1.320E+01   -2.012E+00   -4.850E-02
   6.000E-01    4.000E-01   -1.248E+01   -6.978E+00   -3.935E-02
   6.500E-01    4.000E-01   -1.210E+01   -1.321E+01   -3.352E-02
   7.000E-01    4.000E-01   -1.214E+01   -2.126E+01   -3.394E-02
   7.500E-01    4.000E-01   -1.257E+01   -3.160E+01   -4.576E-02
   8.000E-01    4.000E-01   -1.305E+01   -4.415E+01   -7.693E-02
   8.500E-01    4.000E-01   -1.275E+01   -5.706E+01   -1.372E-01
   9.000E-01    4.000E-01   -1.037E+01   -6.415E+01   -2.335E-01
   9.500E-01    4.000E-01   -5.170E+00   -5.178E+01   -3.612E-01
   1.000E+00    4.000E-01    0.000E+00    0.000E+00   -5.000E-01
   0.000E+00    4.500E-01    0.000E+00    0.000E+00    5.000E-01
   5.000E-02    4.500E-01    1.977E+00    6.057E+01    3.025E-01
   1.000E-01    4.500E-01    4.424E-01    6.590E+01    1.338E-01
   1.500E-01    4.500E-01   -3.142E+00    5.307E+01    2.111E-02
   2.000E-01    4.500E-01   -6.441E+00    3.909E+01   -3.843E-02
   2.500E-01    4.500E-01   -8.554E+00    2.814E+01   -6.257E-02
   3.000E-01    4.500E-01   -9.472E+00    2.006E+01   -6.718E-02
   3.500E-01    4.500E-01   -9.458E+00    1.397E+01   -6.201E-02
   4.000E-01    4.500E-01   -8.817E+00    9.126E+00   -5.231E-02
   4.500E-01    4.500E-01   -7.821E+00    4.986E+00   -4.077E-02
   5.000E-01    4.500E-01   -6.698E+00    1.119E+00   -2.876E-02
   5.500E-01    4.500E-01   -5.639E+00   -2.909E+00   -1.715E-02
   6.000E-01    4.500E-01   -4.795E+00   -7.564E+00   -6.752E-03
   6.500E-01    4.500E-01   -4.322E+00   -1.335E+01    1.053E-03
   7.000E-01    4.500E-01   -4.391E+00   -2.087E+01    3.384E-03
   7.500E-01    4.500E-01   -5.132E+00   -3.075E+01   -5.224E-03
   8.000E-01    4.500E-01   -6.464E+00   -4.334E+01   -3.389E-02
   8.500E-01    4.500E-01   -7.755E+00   -5.739E+01   -9.492E-02
   9.000E-01    4.500E-01   -7.575E+00   -6.690E+01   -1.986E-01
   9.500E-01    4.500E-01   -4.434E+00   -5.634E+01   -3.414E-01
   1.000E+00    4.500E-01    0.000E+00    0.000E+00   -5.000E-01
   0.000E+00    5.000E-01    0.000E+00    0.000E+00    5.000E-01
   5.000E-02    5.000E-01    3.370E+00    5.935E+01    3.216E-01
   1.000E-01    5.000E-01    4.231E+00    6.747E+01    1.649E-01
   1.500E-01    5.000E-01    2.375E+00    5.595E+01    5.586E-02
   2.000E-01    5.000E-01   -8.913E-02    4.153E+01   -4.565E-03
   2.500E-01    5.000E-01   -1.879E+00    2.952E+01   -3.052E-02
   3.000E-01    5.000E-01   -2.698E+00    2.045E+01   -3.652E-02
   3.500E-01    5.000E-01   -2.681E+00    1.362E+01   -3.224E-02
   4.000E-01    5.000E-01   -2.077E+00    8.294E+00   -2.313E-02
   4.500E-01    5.000E-01   -1.118E+00    3.914E+00   -1.193E-02
   5.000E-01    5.000E-01    3.211E-06    3.510E-05   -2.183E-07
   5.500E-01    5.000E-01    1.119E+00   -3.914E+00    1.193E-02
   6.000E-01    5.000E-01    2.077E+00   -8.294E+00    2.313E-02
   6.500E-01    5.000E-01    2.681E+00   -1.362E+01    3.224E-02
   7.000E-01    5.000E-01    2.698E+00   -2.045E+01    3.651E-02
   7.500E-01    5.000E-01    1.879E+00   -2.952E+01    3.051E-02
   8.000E-01    5.000E-01    8.914E-02   -4.153E+01    4.565E-03
   8.500E-01    5.000E-01   -2.375E+00   -5.595E+01   -5.586E-02
   9.000E-01    5.000E-01   -4.231E+00   -6.747E+01   -1.649E-01
   9.500E-01    5.000E-01   -3.370E+00   -5.935E+01   -3.216E-01
   1.000E+00    5.000E-01    0.000E+00    0.000E+00   -5.000E-01
   0.000E+00    5.500E-01    0.000E+00    0.000E+00    5.000E-01
   5.000E-02    5.500E-01    4.434E+00    5.634E+01    3.414E-01
   1.000E-01    5.500E-01    7.575E+00    6.690E+01    1.986E-01
   1.500E-01    5.500E-01    7.755E+00    5.739E+01    9.492E-02
   2.000E-01    5.500E-01    6.464E+00    4.334E+01    3.388E-02
   2.500E-01    5.500E-01    5.132E+00    3.075E+01    5.223E-03
   3.000E-01    5.500E-01    4.391E+00    2.087E+01   -3.384E-03
   3.500E-01    5.500E-01    4.322E+00    1.335E+01   -1.054E-03
   4.000E-01    5.500E-01    4.795E+00    7.564E+00    6.752E-03
   4.500E-01    5.500E-01    5.639E+00    2.909E+00    1.715E-02
   5.000E-01    5.500E-01    6.698E+00   -1.118E+00    2.876E-02
   5.500E-01    5.500E-01    7.821E+00   -4.986E+00    4.077E-02
   6.000E-01    5.500E-01    8.817E+00   -9.126E+00    5.231E-02
   6.500E-01    5.500E-01    9.458E+00   -1.397E+01    6.201E-02
   7.000E-01    5.500E-01    9.472E+00   -2.006E+01    6.718E-02
   7.500E-01    5.500E-01    8.554E+00   -2.814E+01    6.257E-02
   8.000E-01    5.500E-01    6.441E+00   -3.909E+01    3.843E-02
   8.500E-01    5.500E-01    3.142E+00   -5.307E+01   -2.111E-02
   9.000E-01    5.500E-01   -4.424E-01   -6.590E+01   -1.338E-01
   9.500E-01    5.500E-01   -1.977E+00   -6.057E+01   -3.025E-01
   1.000E+00    5.500E-01    0.000E+00    0.000E+00   -5.000E-01
   0.000E+00    6.000E-01    0.000E+00    0.000E+00    5.000E-01
   5.000E-02    6.000E-01    5.170E+00    5.178E+01    3.612E-01
   1.000E-01    6.000E-01    1.037E+01    6.415E+01    2.335E-01
   1.500E-01    6.000E-01    1.275E+01    5.706E+01    1.372E-01
   2.000E-01    6.000E-01    1.305E+01    4.415E+01    7.693E-02
   2.500E-01    6.000E-01    1.257E+01    3.160E+01    4.576E-02
   3.000E-01    6.000E-01    1.214E+01    2.126E+01    3.394E-02
   3.500E-01    6.000E-01    1.210E+01    1.321E+01    3.352E-02
   4.000E-01    6.000E-01    1.248E+01    6.978E+00    3.935E-02
   4.500E-01    6.000E-01    1.320E+01    2.012E+00    4.849E-02
   5.000E-01    6.000E-01    1.417E+01   -2.182E+00    5.945E-02
   5.500E-01    6.000E-01    1.521E+01   -6.034E+00    7.119E-02
   6.000E-01    6.000E-01    1.610E+01   -9.932E+00    8.259E-02
   6.500E-01    6.000E-01    1.660E+01   -1.427E+01    9.214E-02
   7.000E-01    6.000E-01    1.640E+01   -1.955E+01    9.723E-02
   7.500E-01    6.000E-01    1.519E+01   -2.649E+01    9.277E-02
   8.000E-01    6.000E-01    1.263E+01   -3.612E+01    6.905E-02
   8.500E-01    6.000E-01    8.592E+00   -4.906E+01    9.600E-03
   9.000E-01    6.000E-01    3.598E+00   -6.235E+01   -1.060E-01
   9.500E-01    6.000E-01   -2.329E-01   -5.980E+01   -2.847E-01
   1.000E+00    6.000E-01    0.000E+00    0.000E+00   -5.000E-01
   0.000E+00    6.500E-01    0.000E+00    0.000E+00    5.000E-01
   5.000E-02    6.500E-01    5.586E+00    4.597E+01    3.806E-01
   1.000E-01    6.500E-01    1.252E+01    5.932E+01    2.689E-01
   1.500E-01    6.500E-01    1.713E+01    5.470E+01    1.816E-01
   2.000E-01    6.500E-01    1.937E+01    4.352E+01    1.238E-01
   2.500E-01    6.500E-01    2.020E+01    3.166E+01    9.122E-02
   3.000E-01    6.500E-01    2.051E+01    2.134E+01    7.649E-02
   3.500E-01    6.500E-01    2.080E+01    1.302E+01    7.315E-02
   4.000E-01    6.500E-01    2.128E+01    6.458E+00    7.663E-02
   4.500E-01    6.500E-01    2.197E+01    1.219E+00    8.411E-02
   5.000E-01    6.500E-01    2.282E+01   -3.120E+00    9.393E-02
   5.500E-01    6.500E-01    2.366E+01   -6.919E+00    1.048E-01
   6.000E-01    6.500E-01    2.427E+01   -1.052E+01    1.152E-01
   6.500E-01    6.500E-01    2.440E+01   -1.428E+01    1.237E-01
   7.000E-01    6.500E-01    2.374E+01   -1.866E+01    1.277E-01
   7.500E-01    6.500E-01    2.198E+01   -2.437E+01    1.221E-01
   8.000E-01    6.500E-01    1.878E+01   -3.249E+01    9.758E-02
   8.500E-01    6.500E-01    1.389E+01   -4.403E+01    3.720E-02
   9.000E-01    6.500E-01    7.624E+00   -5.708E+01   -8.137E-02
   9.500E-01    6.500E-01    1.744E+00   -5.697E+01   -2.688E-01
   1.000E+00    6.500E-01    0.000E+00    0.000E+00   -5.000E-01
   0.000E+00    7.000E-01    0.000E+00    0.000E+00    5.000E-01
   5.000E-02    7.000E-01    5.704E+00    3.926E+01    3.994E-01
   1.000E-01    7.000E-01    1.398E+01    5.261E+01    3.039E-01
   1.500E-01    7.000E-01    2.067E+01    5.021E+01    2.271E-01
   2.000E-01    7.000E-01    2.502E+01    4.108E+01    1.738E-01
   2.500E-01    7.000E-01    2.757E+01    3.045E+01    1.414E-01
   3.000E-01    7.000E-01    2.907E+01    2.066E+01    1.248E-01
   3.500E-01    7.000E-01    3.008E+01    1.245E+01    1.190E-01
   4.000E-01    7.000E-01    3.093E+01    5.814E+00    1.201E-01
   4.500E-01    7.000E-01    3.173E+01    4.718E-01    1.256E-01
   5.000E-01    7.000E-01    3.248E+01   -3.873E+00    1.336E-01
   5.500E-01    7.000E-01    3.303E+01   -7.493E+00    1.425E-01
   6.000E-01    7.000E-01    3.319E+01   -1.067E+01    1.509E-01
   6.500E-01    7.000E-01    3.273E+01   -1.374E+01    1.572E-01
   7.000E-01    7.000E-01    3.138E+01   -1.713E+01    1.586E-01
   7.500E-01    7.000E-01    2.885E+01   -2.153E+01    1.507E-01
   8.000E-01    7.000E-01    2.481E+01   -2.802E+01    1.240E-01
   8.500E-01    7.000E-01    1.899E+01   -3.791E+01    6.164E-02
   9.000E-01    7.000E-01    1.148E+01   -5.021E+01   -6.010E-02
   9.500E-01    7.000E-01    3.744E+00   -5.217E+01   -2.549E-01
   1.000E+00    7.000E-01    0.000E+00    0.000E+00   -5.000E-01
   0.000E+00    7.500E-01    0.000E+00    0.000E+00    5.000E-01
   5.000E-02    7.500E-01    5.575E+00    3.199E+01    4.173E-01
   1.000E-01    7.500E-01    1.475E+01    4.435E+01    3.381E-01
   1.500E-01    7.500E-01    2.321E+01    4.366E+01    2.729E-01
   2.000E-01    7.500E-01    2.962E+01    3.663E+01    2.258E-01
   2.500E-01    7.500E-01    3.407E+01    2.761E+01    1.955E-01
   3.000E-01    7.500E-01    3.707E+01    1.882E+01    1.786E-01
   3.500E-01    7.500E-01    3.913E+01    1.116E+01    1.711E-01
   4.000E-01    7.500E-01    4.060E+01    4.808E+00    1.701E-01
   4.500E-01    7.500E-01    4.166E+01   -3.296E-01    1.732E-01
   5.000E-01    7.500E-01    4.232E+01   -4.416E+00    1.784E-01
   5.500E-01    7.500E-01    4.250E+01   -7.633E+00    1.843E-01
   6.000E-01    7.500E-01    4.207E+01   -1.022E+01    1.893E-01
   6.500E-01    7.500E-01    4.086E+01   -1.246E+01    1.918E-01
   7.000E-01    7.500E-01    3.869E+01   -1.478E+01    1.894E-01
   7.500E-01    7.500E-01    3.529E+01   -1.780E+01    1.775E-01
   8.000E-01    7.500E-01    3.039E+01   -2.262E+01    1.474E-01
   8.500E-01    7.500E-01    2.367E+01   -3.070E+01    8.205E-02
   9.000E-01    7.500E-01    1.506E+01   -4.184E+01   -4.294E-02
   9.500E-01    7.500E-01    5.680E+00   -4.549E+01   -2.438E-01
   1.000E+00    7.500E-01    0.000E+00    0.000E+00   -5.000E-01
   0.000E+00    8.000E-01    0.000E+00    0.000E+00    5.000E-01
   5.000E-02    8.000E-01    5.276E+00    2.451E+01    4.342E-01
   1.000E-01    8.000E-01    1.489E+01    3.497E+01    3.709E-01
   1.500E-01    8.000E-01    2.467E+01    3.533E+01    3.180E-01
   2.000E-01    8.000E-01    3.285E+01    3.022E+01    2.785E-01
   2.500E-01    8.000E-01    3.910E+01    2.300E+01    2.519E-01
   3.000E-01    8.000E-01    4.363E+01    1.560E+01    2.358E-01
   3.500E-01    8.000E-01    4.682E+01    8.920E+00    2.275E-01
   4.000E-01    8.000E-01    4.897E+01    3.285E+00    2.245E-01
   4.500E-01    8.000E-01    5.028E+01   -1.245E+00    2.247E-01
   5.000E-01    8.000E-01    5.077E+01   -4.713E+00    2.262E-01
   5.500E-01    8.000E-01    5.047E+01   -7.244E+00    2.278E-01
   6.000E-01    8.000E-01    4.934E+01   -9.039E+00    2.280E-01
   6.500E-01    8.000E-01    4.734E+01   -1.036E+01    2.254E-01
   7.000E-01    8.000E-01    4.436E+01   -1.156E+01    2.176E-01
   7.500E-01    8.000E-01    4.025E+01   -1.323E+01    2.006E-01
   8.000E-01    8.000E-01    3.474E+01   -1.640E+01    1.658E-01
   8.500E-01    8.000E-01    2.747E+01   -2.258E+01    9.673E-02
   9.000E-01    8.000E-01    1.815E+01   -3.221E+01   -3.126E-02
   9.500E-01    8.000E-01    7.484E+00   -3.711E+01   -2.362E-01
   1.000E+00    8.000E-01    0.000E+00    0.000E+00   -5.000E-01
   0.000E+00    8.500E-01    0.000E+00    0.000E+00    5.000E-01
   5.000E-02    8.500E-01    4.897E+00    1.710E+01    4.496E-01
   1.000E-01    8.500E-01    1.450E+01    2.495E+01    4.014E-01
   1.500E-01    8.500E-01    2.500E+01    2.570E+01    3.605E-01
   2.000E-01    8.500E-01    3.439E+01    2.220E+01    3.291E-01
   2.500E-01    8.500E-01    4.196E+01    1.683E+01    3.069E-01
   3.000E-01    8.500E-01    4.765E+01    1.110E+01    2.923E-01
   3.500E-01    8.500E-01    5.163E+01    5.813E+00    2.833E-01
   4.000E-01    8.500E-01    5.415E+01    1.348E+00    2.779E-01
   4.500E-01    8.500E-01    5.535E+01   -2.129E+00    2.743E-01
   5.000E-01    8.500E-01    5.537E+01   -4.604E+00    2.712E-01
   5.500E-01    8.500E-01    5.436E+01   -6.199E+00    2.674E-01
   6.000E-01    8.500E-01    5.245E+01   -7.089E+00    2.619E-01
   6.500E-01    8.500E-01    4.976E+01   -7.491E+00    2.532E-01
   7.000E-01    8.500E-01    4.629E+01   -7.694E+00    2.393E-01
   7.500E-01    8.500E-01    4.196E+01   -8.180E+00    2.163E-01
   8.000E-01    8.500E-01    3.652E+01   -9.836E+00    1.760E-01
   8.500E-01    8.500E-01    2.950E+01   -1.410E+01    1.029E-01
   9.000E-01    8.500E-01    2.030E+01   -2.185E+01   -2.707E-02
   9.500E-01    8.500E-01    9.028E+00   -2.735E+01   -2.331E-01
   1.000E+00    8.500E-01    0.000E+00    0.000E+00   -5.000E-01
   0.000E+00    9.000E-01    0.000E+00    0.000E+00    5.000E-01
   5.000E-02    9.000E-01    4.391E+00    1.001E+01    4.624E-01
   1.000E-01    9.000E-01    1.339E+01    1.487E+01    4.269E-01
   1.500E-01    9.000E-01    2.368E+01    1.545E+01    3.964E-01
   2.000E-01    9.000E-01    3.324E+01    1.326E+01    3.721E-01
   2.500E-01    9.000E-01    4.107E+01    9.746E+00    3.536E-01
   3.000E-01    9.000E-01    4.687E+01    5.924E+00    3.398E-01
   3.500E-01    9.000E-01    5.067E+01    2.414E+00    3.295E-01
   4.000E-01    9.000E-01    5.264E+01   -4.309E-01    3.210E-01
   4.500E-01    9.000E-01    5.300E+01   -2.459E+00    3.132E-01
   5.000E-01    9.000E-01    5.209E+01   -3.718E+00    3.051E-01
   5.500E-01    9.000E-01    5.022E+01   -4.331E+00    2.958E-01
   6.000E-01    9.000E-01    4.770E+01   -4.440E+00    2.843E-01
   6.500E-01    9.000E-01    4.473E+01   -4.191E+00    2.695E-01
   7.000E-01    9.000E-01    4.146E+01   -3.762E+00    2.493E-01
   7.500E-01    9.000E-01    3.785E+01   -3.465E+00    2.199E-01
   8.000E-01    9.000E-01    3.367E+01   -3.942E+00    1.741E-01
   8.500E-01    9.000E-01    2.829E+01   -6.356E+00    9.739E-02
   9.000E-01    9.000E-01    2.065E+01   -1.174E+01   -3.279E-02
   9.500E-01    9.000E-01    1.001E+01   -1.682E+01   -2.361E-01
   1.000E+00    9.000E-01    0.000E+00    0.000E+00   -5.000E-01
   0.000E+00    9.500E-01    0.000E+00    0.000E+00    5.000E-01
   5.000E-02    9.500E-01    3.169E+00    3.714E+00    4.705E-01
   1.000E-01    9.500E-01    1.001E+01    5.659E+00    4.431E-01
   1.500E-01    9.500E-01    1.803E+01    5.848E+00    4.193E-01
   2.000E-01    9.500E-01    2.546E+01    4.816E+00    3.993E-01
   2.500E-01    9.500E-01    3.130E+01    3.200E+00    3.826E-01
   3.000E-01    9.500E-01    3.520E+01    1.501E+00    3.686E-01
   3.500E-01    9.500E-01    3.722E+01    4.385E-02    3.564E-01
   4.000E-01    9.500E-01    3.762E+01   -9.858E-01    3.450E-01
   4.500E-01    9.500E-01    3.679E+01   -1.575E+00    3.335E-01
   5.000E-01    9.500E-01    3.516E+01   -1.822E+00    3.213E-01
   5.500E-01    9.500E-01    3.307E+01   -1.807E+00    3.076E-01
   6.000E-01    9.500E-01    3.083E+01   -1.598E+00    2.913E-01
   6.500E-01    9.500E-01    2.863E+01   -1.250E+00    2.713E-01
   7.000E-01    9.500E-01    2.664E+01   -8.134E-01    2.454E-01
   7.500E-01    9.500E-01    2.487E+01   -3.930E-01    2.104E-01
   8.000E-01    9.500E-01    2.317E+01   -2.733E-01    1.594E-01
   8.500E-01    9.500E-01    2.093E+01   -1.079E+00    7.982E-02
   9.000E-01    9.500E-01    1.682E+01   -3.574E+00   -4.868E-02
   9.500E-01    9.500E-01    9.186E+00   -6.701E+00   -2.452E-01
   1.000E+00    9.500E-01    0.000E+00    0.000E+00   -5.000E-01
   0.000E+00    1.000E+00    0.000E+00    0.000E+00    5.000E-01
   5.000E-02    1.000E+00    0.000E+00    0.000E+00    4.732E-01
   1.000E-01    1.000E+00    0.000E+00    0.000E+00    4.484E-01
   1.500E-01    1.000E+00    0.000E+00    0.000E+00    4.266E-01
   2.000E-01    1.000E+00    0.000E+00    0.000E+00    4.078E-01
   2.500E-01    1.000E+00    0.000E+00    0.000E+00    3.915E-01
   3.000E-01    1.000E+00    0.000E+00    0.000E+00    3.771E-01
   3.500E-01    1.000E+00    0.000E+00    0.000E+00    3.639E-01
   4.000E-01    1.000E+00    0.000E+00    0.000E+00    3.512E-01
   4.500E-01    1.000E+00    0.000E+00    0.000E+00    3.383E-01
   5.000E-01    1.000E+00    0.000E+00    0.000E+00    3.246E-01
   5.500E-01    1.000E+00    0.000E+00    0.000E+00    3.091E-01
   6.000E-01    1.000E+00    0.000E+00    0.000E+00    2.908E-01
   6.500E-01    1.000E+00    0.000E+00    0.000E+00    2.685E-01
   7.000E-01    1.000E+00    0.000E+00    0.000E+00    2.402E-01
   7.500E-01    1.000E+00    0.000E+00    0.000E+00    2.026E-01
   8.000E-01    1.000E+00    0.000E+00    0.000E+00    1.493E-01
   8.500E-01    1.000E+00    0.000E+00    0.000E+00    6.838E-02
   9.000E-01    1.000E+00    0.000E+00    0.000E+00   -5.894E-02
   9.500E-01    1.000E+00    0.000E+00    0.000E+00   -2.513E-01
   1.000E+00    1.000E+00    0.000E+00    0.000E+00   -4.999E-01
